24
Lattice="1.0 0.0 0.0 0.0 1.0 0.0 0.0 0.0 1.0" Properties=species:S:1:pos:R:3:Z:I:1:forces:R:3 Benzene=T energy=-12663.9397419 stress="6.98613735322 0.000427063535933 0.878532183072 0.000427063535933 6.90397763118 0.00441544803921 0.878532183072 0.00441544803921 16.3162721975" pbc="F F F"
C      1.21723096       1.10081197       0.40229712        6      -0.00005970      -0.00015694       0.00051797 
H      1.86521524       1.96889325       0.41411287        1       0.00012589       0.00052055      -0.00006117 
C      1.76037766      -0.15793302       0.35226727        6      -0.00033786       0.00009134      -0.00048260 
H      2.83628636      -0.28155120       0.32467172        1      -0.00012555      -0.00018490      -0.00005608 
C      0.94656392      -1.25967033       0.42871006        6      -0.00007344       0.00007501       0.00004023 
H      1.38123602      -2.25143231       0.46129745        1       0.00009196      -0.00036741       0.00009016 
C     -0.41038535      -1.10266659       0.55525627        6       0.00028562       0.00022387       0.00013372 
H     -1.04485788      -1.97074048       0.68761129        1       0.00002135       0.00015465      -0.00016458 
C     -0.95351787       0.15609173       0.60534623        6       0.00002076       0.00004327      -0.00011903 
H     -2.01595589       0.27988219       0.77712565        1      -0.00017618      -0.00014534       0.00003946 
C     -0.13971424       1.25783529       0.52887017        6       0.00038611      -0.00007633      -0.00012321 
H     -0.56090260       2.24969240       0.64042388        1      -0.00013876      -0.00021950      -0.00008819 
C      1.47061141       1.10212418       3.11712864        6      -0.00006343      -0.00009177       0.00016641 
H      2.10505451       1.97021563       2.98474725        1      -0.00001079      -0.00018213       0.00016255 
C      2.01378447      -0.15661833       3.06708547        6      -0.00007524      -0.00008438      -0.00030901 
H      3.07623211      -0.28037652       2.89532112        1       0.00006083       0.00012641       0.00001497 
C      1.20000089      -1.25838201       3.14353127        6      -0.00026242      -0.00001058       0.00017476 
H      1.62121882      -2.25022640       3.03197363        1       0.00010831       0.00021301       0.00008634 
C     -0.15694559      -1.10139320       3.27008108        6      -0.00003496       0.00019120      -0.00010444 
H     -0.80490601      -1.96949060       3.25823666        1      -0.00016040      -0.00053674       0.00004882 
C     -0.70012288       0.15733736       3.32016605        6       0.00031669      -0.00008961       0.00002332 
H     -1.77603821       0.28092421       3.34777099        1       0.00023596       0.00019705       0.00011409 
C      0.11366534       1.25909553       3.24369799        6      -0.00008490      -0.00003269      -0.00001287 
H     -0.32103649       2.25084569       3.21111062        1      -0.00005242       0.00034211      -0.00009193 
