12
        Energy:      10.5736998
C         -0.49198        2.81225        0.42978
C         -0.10647        2.73229       -0.91272
C         -0.81396        4.05203        0.99246
C         -0.75044        5.21184        0.21264
C         -0.36493        5.13188       -1.12986
C         -0.04295        3.89210       -1.69254
H         -0.54112        1.91499        1.03307
H          0.14263        1.77317       -1.34803
H         -1.11220        4.11389        2.03106
H         -0.99953        6.17096        0.64794
H         -0.31579        6.02914       -1.73316
H          0.25529        3.83024       -2.73114


